LAMMPS data file via write_data, version 2 Aug 2023, timestep = 100000, units = metal

24 atoms
1 atom types

-5 3.829 xlo xhi
-5 10.705 ylo yhi
-5 12.673 zlo zhi

Masses

1 12.01

Pair Coeffs # lj/cut

1 0.1 3

Atoms # atomic

2 1 1.914 2.754 0.696 0 0 0
5 1 1.914 0.763 1.993 0 0 0
10 1 1.914 5.045 1.149 0 0 0
14 1 0 8.107 0.696 0 0 0
17 1 0 6.116 1.993 0 0 0
22 1 0 10.398 1.149 0 0 0
1 1 0 2.599 11.977 0 0 0
3 1 0 2.599 7.032 0 0 0
4 1 1.914 2.754 5.641 0 0 0
7 1 1.914 0.763 4.343 0 0 0
9 1 0 0.308 11.524 0 0 0
11 1 0 0.308 7.485 0 0 0
6 1 0 4.589 10.68 0 0 0
8 1 0 4.589 8.329 0 0 0
12 1 1.914 5.045 5.188 0 0 0
13 1 1.914 7.951 11.977 0 0 0
15 1 1.914 7.951 7.032 0 0 0
16 1 0 8.107 5.641 0 0 0
18 1 1.914 9.942 10.68 0 0 0
19 1 0 6.116 4.343 0 0 0
20 1 1.914 9.942 8.329 0 0 0
21 1 1.914 5.66 11.524 0 0 0
23 1 1.914 5.66 7.485 0 0 0
24 1 0 10.398 5.188 0 0 0

Velocities

2 0 0 0
5 0 0 0
10 0 0 0
14 0 0 0
17 0 0 0
22 0 0 0
1 0 0 0
3 0 0 0
4 0 0 0
7 0 0 0
9 0 0 0
11 0 0 0
6 0 0 0
8 0 0 0
12 0 0 0
13 0 0 0
15 0 0 0
16 0 0 0
18 0 0 0
19 0 0 0
20 0 0 0
21 0 0 0
23 0 0 0
24 0 0 0
