(written by ASE)

6792 atoms
9 atom types

0.0      53.704999999999998  xlo xhi
0.0      60.812892782400773  ylo yhi
0.0      61.237023312433237  zlo zhi
    -4.4978341939457618     -8.1807778436766601     -15.114346122307731  xy xz yz

Atoms # atomic

     1   4                  30.148      34.718000000000004      11.152999999999999
     2   1      30.059999999999999      33.423999999999999      11.808999999999997
     3   1      28.943000000000001      33.378999999999998      12.831999999999997
     4   6                   28.66      32.335999999999999      13.418999999999997
     5   4                  28.305      34.529000000000003      13.033999999999997
     6   1      27.251999999999999      34.685000000000002      14.025999999999996
     7   1      25.989000000000001      35.240000000000002      13.380999999999997
     8   6                  26.044      36.030000000000001      12.433999999999996
     9   1      27.684999999999999      35.616999999999997      15.159999999999997
    10   6                  26.718      35.639000000000003      16.193999999999996
    11   4      24.847999999999999      34.822000000000003      13.921999999999997
    12   1                  23.541      35.344000000000001      13.553999999999997
    13   1                   23.16      36.595999999999997      14.343999999999996
    14   6      21.975999999999999      36.960999999999999      14.359999999999996
    15   1      22.460000000000001      34.280999999999999      13.774999999999997
    16   8      22.321999999999999      33.037999999999997      12.478999999999996
    17   4      24.114999999999998                  37.244      15.018999999999997
    18   1      23.768000000000001      38.350999999999999      15.908999999999997
    19   1      23.079999999999998      39.468000000000004      15.131999999999996
    20   6      23.591000000000001      39.945999999999998      14.110999999999997
    21   1      25.015000000000001      38.871000000000002      16.636999999999997
    22   1                   26.09                    39.5      15.751999999999997
    23   1                  27.215      40.161000000000001      16.565999999999995
    24   1                  28.465                  40.381      15.699999999999996
    25   4                  29.584      39.444000000000003      16.040999999999997
    26   4      21.893999999999998      39.850999999999999      15.597999999999997
    27   1      21.167999999999999      40.947000000000003      14.981999999999996
    28   1      20.806999999999999      40.726999999999997      13.530999999999997
    29   6      20.687999999999999      41.697000000000003      12.772999999999996
    30   4      20.638999999999999      39.469999999999999      13.111999999999997
    31   1                  20.145      39.213999999999999      11.764999999999999
    32   1                  19.346      37.918999999999997      11.703999999999999
    33   6                  19.355      37.228000000000002      10.678999999999998
    34   1      21.286999999999999      39.197000000000003      10.743999999999998
    35   1      22.306000000000001      38.097999999999999      10.927999999999999
    36   1      23.481000000000002      38.329000000000001      9.9949999999999974
    37   4      24.446999999999999      37.240000000000002      10.036999999999999
    38   1      24.629000000000001      36.366999999999997       9.052999999999999
    39   4                  23.901      36.450000000000003      7.9519999999999982
    40   4                  25.532      35.406999999999996      9.1789999999999985
    41   4                  18.651      37.582999999999998      12.782999999999996
    42   1      17.771000000000001                  36.427      12.764999999999997
    43   1      16.710000000000001      36.604999999999997      11.688999999999998
    44   6      16.114000000000001      37.677999999999997      11.568999999999999
    45   1                  17.125      36.250999999999998      14.130999999999997
    46   8                  18.334      35.790999999999997      15.430999999999996
    47   4      16.498000000000001      35.552999999999997      10.891999999999998
    48   1      15.457000000000001      35.521000000000001      9.8589999999999982
    49   1                  15.625      36.667000000000002      8.8669999999999991
    50   6      14.656000000000001                   37.32      8.4679999999999982
    51   1                  14.061      35.527999999999999      10.482999999999999
    52   1                  13.898      34.536999999999999      11.611999999999998
    53   1      13.744999999999999                  33.189      11.350999999999999
    54   1                  13.901      34.956000000000003      12.930999999999996
    55   1                  13.596      32.271000000000001      12.385999999999996
    56   1                   13.75      34.042999999999999      13.969999999999997
    57   1      13.592000000000001      32.703000000000003      13.693999999999997
    58   4      16.873999999999999      36.906999999999996      8.4709999999999983
    59   1      17.187999999999999      37.985999999999997      7.5519999999999978
    60   1      16.498000000000001      37.764000000000003      6.2129999999999983
    61   6                  16.273      36.628999999999998      5.7839999999999989
    62   1      18.704000000000001      38.076000000000001       7.352999999999998
    63   1                  19.311      36.796999999999997      6.7899999999999983
    64   1      20.829999999999998      36.729999999999997      6.9429999999999978
    65   6      21.478000000000002      37.787999999999997      7.1479999999999979
    66   6      21.370000000000001      35.600999999999999       6.860999999999998
    67   4      16.164999999999999                  38.869       5.552999999999999
    68   1                  15.512      38.834000000000003      4.2499999999999991
    69   1      16.527000000000001                  38.942      3.1129999999999991
    70   6                   17.57      39.587000000000003      3.2519999999999989
    71   1      14.492000000000001      39.959000000000003      4.1479999999999988
    72   1                  13.403                  39.936      5.2159999999999993
    73   1                  12.753      41.292000000000002      5.3309999999999995
    74   1      12.375999999999999                  38.872      4.8909999999999991
    75   4      27.594000000000001      32.052999999999997      6.5959999999999983
    76   1                  26.657      31.155000000000001      7.2799999999999985
    77   1      25.265999999999998                   31.77       7.400999999999998
    78   6      25.126000000000001      32.951999999999998      7.7029999999999985
    79   1      27.167999999999999      30.777000000000001      8.6699999999999982
    80   8                  27.369      32.146999999999998      9.8549999999999986
    81   4      24.242999999999999      30.940000000000001      7.2179999999999982
    82   1                  22.878      31.399999999999999      6.9959999999999987
    83   1                  22.096      31.571999999999999      8.2939999999999987
    84   6      22.245000000000001      30.789999999999999      9.2379999999999978
    85   1      22.143000000000001                   30.41       6.094999999999998
    86   1                  22.555                  30.439      4.6439999999999992
    87   1                  21.974      29.233000000000001       3.911999999999999
    88   4      20.515999999999998      29.158999999999999       4.020999999999999
    89   1      19.766999999999999      28.242000000000001      3.4099999999999993
    90   4      20.332000000000001      27.309999999999999      2.6519999999999997
    91   4      18.449000000000002      28.251000000000001      3.5579999999999989
    92   4      21.222999999999999      32.585000000000001      8.3129999999999988
    93   1      20.347999999999999      32.853999999999999      9.4489999999999981
    94   1      18.885999999999999      32.954999999999998      9.0299999999999976
    95   6                  18.064      33.484000000000002      9.7909999999999986
    96   1      20.768999999999998      34.140000000000001      10.155999999999999
    97   8      22.472999999999999      34.082999999999998      10.732999999999999
    98   4      18.550000000000001      32.462000000000003      7.8399999999999981
    99   1      17.234000000000002      32.621000000000002      7.2459999999999987
   100   1      16.292000000000002                  31.494      7.6649999999999983
   101   6                  16.706                  30.462      8.2179999999999982
   102   1      17.347000000000001      32.659999999999997      5.7209999999999992
   103   1      17.954000000000001                  31.384       5.153999999999999
   104   6      19.173999999999999      31.181000000000001      5.3299999999999992
   105   6      17.216999999999999      30.571000000000002      4.5569999999999995
   106   4                  15.004      31.702999999999999      7.3429999999999982
   107   1                  13.929      30.771000000000001      7.6909999999999981
   108   1                  14.253      29.332999999999998      7.3279999999999985
   109   6                  13.722      28.405000000000001      7.9429999999999978
   110   1      12.632999999999999      31.126999999999999      6.9529999999999985
   111   1                  12.071      32.484000000000002      7.3179999999999978
   112   6                  12.708      33.289000000000001      7.9989999999999979
   113   4      10.851000000000001      32.744999999999997       6.852999999999998
   114   4                  15.055                  29.122      6.2929999999999984
   115   1      15.289999999999999      27.786999999999999      5.7669999999999995
   116   1      16.684999999999999                   27.27      6.0479999999999983
   117   6                   17.02                  26.166      5.5889999999999995
   118   1      15.039999999999999                  27.762      4.2579999999999991
   119   1                  13.573                  27.872      3.8449999999999993
   120   1      13.457000000000001                  28.044      2.3429999999999995
   121   1                  12.798      26.638000000000002      4.3199999999999994
   122   4      17.507000000000001      28.027000000000001       6.783999999999998
   123   1      18.891999999999999      27.609999999999999      6.9759999999999982
   124   1      18.963999999999999                  26.224      7.5939999999999985
   125   6                  19.913                   25.48      7.3349999999999982
   126   1      19.646999999999998      28.623999999999999      7.8389999999999986
   127   8      19.167000000000002      28.664999999999999      9.5769999999999982
   128   4                  17.962      25.850000000000001      8.3899999999999988
   129   1      17.922999999999998      24.521999999999998      8.9929999999999986
   130   1      17.507999999999999      23.428999999999998      8.0139999999999976
   131   6                  17.692                  22.244      8.3169999999999984
   132   1      16.949999999999999      24.510999999999999      10.172999999999998
   133   1      17.542999999999999      24.969000000000001      11.495999999999999
   134   1      18.399999999999999      23.882000000000001      12.111999999999997
   135   1      17.925999999999998      23.545000000000002      13.513999999999996
   136   4                  18.526      24.431000000000001      14.556999999999997
   137   4      16.940999999999999      23.789000000000001      6.8599999999999985
   138   1                  16.157      22.815000000000001      6.1039999999999983
   139   1      17.036999999999999      21.707000000000001      5.5439999999999987
   140   6      16.800000000000001                  20.526      5.8139999999999992
   141   1      15.356999999999999                  23.512      5.0149999999999988
   142   6      14.095000000000001      23.853999999999999      5.5569999999999995
   143   4                  18.058      22.053000000000001      4.7649999999999988
   144   1      19.216999999999999      21.164000000000001      4.6339999999999995
   145   1      20.393000000000001      21.972999999999999      5.1799999999999988
   146   6      20.986000000000001      22.795999999999999       4.472999999999999
   147   1      19.385999999999999                  20.637      3.2019999999999991
   148   1      18.492999999999999      19.411999999999999      3.0269999999999992
   149   1      17.109000000000002      19.553000000000001      2.9349999999999996
   150   1      19.013999999999999      18.123000000000001      3.0499999999999989
   151   1      16.274999999999999      18.457000000000001      2.8379999999999996
   152   1                   18.18                  17.009      2.9499999999999997
   153   1      16.818000000000001      17.187999999999999      2.8409999999999997
   154   6      15.978999999999999      16.103999999999999      2.7359999999999998
   155   4      20.719000000000001      21.687000000000001      6.4439999999999982
   156   1      21.149000000000001      22.678000000000001      7.4269999999999978
   157   1      22.388000000000002                  23.439       6.977999999999998
   158   6      23.175999999999998      22.981999999999999      6.1469999999999985
   159   1      21.422999999999998      22.024999999999999      8.7829999999999977
   160   6      21.245999999999999      22.949999999999999      9.8499999999999979
   161   4      22.539999999999999                  24.631      7.5579999999999981
   162   1      23.507000000000001                  25.625      7.1139999999999981
   163   1      23.498000000000001      26.832000000000001      8.0379999999999985
   164   6      24.059000000000001      27.876000000000001      7.6939999999999982
   165   1      23.207999999999998      26.074000000000002      5.6749999999999989
   166   6                  24.398      26.437000000000001      4.9839999999999991
   167   4      22.879999999999999      26.713999999999999      9.2109999999999985
   168   1                  22.802      27.867999999999999      10.096999999999998
   169   1      24.126999999999999                  28.087      10.823999999999998
   170   6                  24.846      27.135999999999999      11.142999999999999
   171   1      21.673999999999999                  27.709      11.117999999999999
   172   8      20.094000000000001      27.071999999999999      10.480999999999998
   173   4      24.452000000000002      29.359999999999999      11.075999999999999
   174   1      25.550999999999998      29.672999999999998      11.977999999999998
   175   1                  25.343      28.937000000000001      13.294999999999996
   176   6                  24.212      28.611000000000001      13.673999999999996
   177   1                  25.651      31.181000000000001      12.240999999999996
   178   8                  25.567      32.295999999999999      10.803999999999998
   179   4      26.454999999999998                  28.666      13.989999999999997
   180   1      26.390000000000001                  27.895      15.225999999999997
   181   1      25.361999999999998      28.469999999999999      16.197999999999997
   182   6      24.577999999999999                  27.721      16.792999999999996
   183   1                  27.779                   27.82      15.881999999999996
   184   1      28.295000000000002      29.135999999999999      16.380999999999997
   185   4      28.632000000000001      30.173999999999999      15.535999999999996
   186   1      28.530000000000001      29.585000000000001      17.637999999999998
   187   1      29.047999999999998      31.204999999999998      16.249999999999996
   188   4      28.995999999999999      30.873999999999999      17.528999999999996
   189   4      25.318999999999999      29.797000000000001      16.350999999999996
   190   1      24.483000000000001                  30.407      17.383999999999997
   191   1                  23.061      30.704000000000001      16.918999999999997
   192   6      22.420999999999999      31.603999999999999      17.473999999999997
   193   1      25.135999999999999                  31.683      17.918999999999997
   194   1      25.466000000000001                  32.677      16.830999999999996
   195   6      25.053000000000001      32.463999999999999      15.671999999999997
   196   6      26.140000000000001                  33.683      17.137999999999998
   197   4      22.536999999999999      29.966999999999999      15.931999999999997
   198   1      21.190999999999999      30.254999999999999      15.433999999999996
   199   1      20.126999999999999      29.853000000000002      16.443999999999996
   200   6                   19.16      30.591000000000001      16.655999999999995
   201   1                  20.942      29.547999999999998      14.096999999999996
   202   1      19.518999999999998      29.690999999999999      13.577999999999996
   203   1      19.132000000000001      30.827999999999999      12.873999999999997
   204   1      18.577999999999999                  28.686      13.782999999999996
   205   1      17.835000000000001                  30.959      12.384999999999996
   206   1                  17.276                  28.814      13.296999999999997
   207   1      16.908000000000001      29.949999999999999      12.597999999999997
   208   4                  20.291      28.696999999999999      17.089999999999996
   209   1      19.280000000000001                  28.238      18.036999999999995
   210   1                  19.192                  29.084      19.314999999999998
   211   6      18.138999999999999                   29.07      19.954999999999995
   212   1      19.516999999999999      26.771999999999998      18.397999999999996
   213   1      19.236000000000001                  25.834      17.244999999999997
   214   6      19.925000000000001      25.940000000000001      16.200999999999997
   215   6      18.326000000000001      24.984999999999999      17.380999999999997
   216   4                  20.244      29.815999999999999      19.713999999999995
   217   1      20.106000000000002      30.774000000000001      20.820999999999998
   218   1      19.492000000000001      32.085000000000001      20.373999999999995
   219   6      18.408000000000001      32.466999999999999      20.820999999999998
   220   1      21.454999999999998      31.103000000000002      21.446999999999996
   221   1      21.998999999999999      30.004000000000001      22.212999999999997
   222   1      23.373999999999999      29.757999999999999      21.780999999999995
   223   6      24.143000000000001                  30.692      21.529999999999998
   224   6      23.623999999999999      28.585000000000001      21.485999999999997
   225   4      20.239999999999998      32.826999999999998      19.560999999999996
   226   1      19.821000000000002      34.168999999999997      19.190999999999995
   227   1      18.434999999999999      34.158000000000001      18.568999999999996
   228   6      17.606000000000002      35.024999999999999      18.863999999999997
   229   1                  20.843      34.774000000000001      18.231999999999996
   230   1                  22.294                  34.631      18.684999999999995
   231   1      23.213000000000001      35.341000000000001      17.714999999999996
   232   1      22.460999999999999      35.170999999999999      20.093999999999998
   233   4      18.146999999999998      33.149999999999999      17.746999999999996
   234   1                  17.003      33.215000000000003      16.857999999999997
   235   1                  15.852      32.298000000000002      17.241999999999997
   236   6                  14.714      32.573999999999998      16.851999999999997
   237   1      17.449000000000002      32.905000000000001      15.425999999999997
   238   8                  18.881      33.892000000000003      14.945999999999996
   239   4      16.100000000000001      31.231999999999999      17.998999999999995
   240   1                  15.016                  30.343      18.390999999999995
   241   1                  14.868      30.335999999999999      19.905999999999995
   242   6      14.888999999999999      29.274000000000001      20.535999999999998
   243   1                  15.254      28.931999999999999      17.849999999999998
   244   1                    15.1      28.774000000000001      16.331999999999997
   245   1                  15.574      27.405999999999999      15.879999999999997
   246   1                  13.648      28.984999999999999      15.947999999999997
   247   4                  14.746      31.524000000000001      20.494999999999997
   248   1      14.486000000000001      31.626999999999999      21.921999999999997
   249   1      13.085000000000001                  31.113      22.224999999999998
   250   6                   12.17                  31.212      21.398999999999997
   251   1                  14.653      33.075000000000003      22.391999999999996
   252   1                  15.911      33.728999999999999      21.857999999999997
   253   1      16.452000000000002      34.777000000000001      22.795999999999996
   254   1                  17.878                   35.18      22.421999999999997
   255   4                  17.988      36.634999999999998      22.095999999999997
   256   4                  12.919                  30.538      23.414999999999996
   257   1      11.641999999999999      29.908000000000001      23.725999999999996
   258   1      11.212999999999999      30.021000000000001      25.184999999999992
   259   6                  10.081      29.652999999999999      25.524999999999991
   260   1      11.712999999999999      28.437999999999999      23.349999999999998
   261   6      13.000999999999999      27.928999999999998      23.725999999999996
   262   1                  11.503      28.231999999999999      21.838999999999995
   263   4                  12.097      30.504000000000001      26.054999999999993
   264   1                  11.782      30.574999999999999      27.479999999999993
   265   1      10.518000000000001      31.393999999999998      27.725999999999992
   266   6      10.313000000000001      32.439999999999998      27.103999999999992
   267   1      12.957000000000001                  31.183      28.238999999999994
   268   4      9.6699999999999999                  30.907      28.635999999999992
   269   1      8.3829999999999991      31.475000000000001      29.056999999999992
   270   1      7.2720000000000002      31.190000000000001      28.047999999999991
   271   6      6.1180000000000003                  31.587      28.278999999999993
   272   1      8.4450000000000003      32.993000000000002      29.313999999999993
   273   1      7.2169999999999996      33.622999999999998      30.002999999999993
   274   1      6.4409999999999998      34.569000000000003      29.050999999999991
   275   4      7.3109999999999999      35.606999999999999      28.499999999999993
   276   1      7.6849999999999996      36.698999999999998      29.156999999999993
   277   4      7.2489999999999997      36.921999999999997      30.388999999999992
   278   4      8.4909999999999997                   37.57      28.573999999999995
   279   4      7.5490000000000004      30.495999999999999      26.957999999999991
   280   1      6.4089999999999998                  30.314      26.091999999999992
   281   1      6.1539999999999999      31.579000000000001      25.291999999999994
   282   6      7.0270000000000001      32.442999999999998      25.140999999999991
   283   4      4.9290000000000003      31.702999999999999      24.790999999999993
   284   1      4.6379999999999999      32.692999999999998      23.771999999999995
   285   1      3.6469999999999998      33.761000000000003      24.196999999999992
   286   6                   3.444      34.715000000000003      23.438999999999997
   287   1      4.1379999999999999                  31.994      22.499999999999996
   288   1      5.0890000000000004      30.937000000000001      22.050999999999995
   289   1      4.9640000000000004                   29.59      22.224999999999998
   290   1      6.3339999999999996      31.140000000000001      21.375999999999998
   291   4      6.0510000000000002      28.943000000000001      21.691999999999997
   292   1      6.9059999999999997      29.870999999999999      21.163999999999998
   293   1      7.0170000000000003      32.271999999999998      20.920999999999996
   294   1      8.1289999999999996      29.702999999999999      20.518999999999995
   295   1      8.2240000000000002      32.106000000000002      20.287999999999997
   296   1      8.7680000000000007      30.829999999999998      20.084999999999997
   297   4      3.0369999999999999      33.658999999999999      25.373999999999992
   298   1                   2.085                  34.677      25.791999999999994
   299   1      2.5219999999999998      35.323999999999998      27.099999999999994
   300   6                   3.258      34.726999999999997      27.893999999999991
   301   1     0.68200000000000005      34.091000000000001      25.934999999999992
   302   1    0.042999999999999997      33.658000000000001      24.602999999999994
   303   1                  -0.443      34.829000000000001      23.733999999999998
   304   6     0.40600000000000003      35.567999999999998      23.167999999999996
   305   6     -1.6850000000000001                      35      23.613999999999997
   306   4                   2.069                  36.561      27.311999999999994
   307   1      2.3580000000000001      37.274000000000001      28.549999999999994
   308   1      1.4390000000000001      36.804000000000002      29.668999999999993
   309   6     0.23599999999999999      36.607999999999997      29.470999999999993
   310   1                   2.194      38.784999999999997      28.377999999999993
   311   8      3.5299999999999998                  39.625      27.490999999999993
   312   4                   2.024      36.609999999999999      30.842999999999993
   313   1                   1.286                  36.439      32.080999999999996
   314   1      1.1339999999999999      37.792000000000002      32.761999999999993
   315   6                   1.996      38.665999999999997      32.635999999999996
   316   1      2.0230000000000001      35.482999999999997      33.015999999999991
   317   6      3.1560000000000001      36.158999999999999      33.572999999999993
   318   1      2.5059999999999998      34.267000000000003      32.259999999999991
   319   4    0.033000000000000002      37.965000000000003      33.498999999999995
   320   1   -0.065000000000000002      39.152999999999999      34.334999999999994
   321   1                   1.036      39.180999999999997      35.383999999999993
   322   6                     1.3      40.237000000000002      35.964999999999996
   323   1                   -1.45      39.246000000000002       34.97999999999999
   324   1                  -2.351      40.206000000000003      34.215999999999994
   325   1                  -3.839      40.018999999999998      34.462999999999994
   326   1     -4.6369999999999996      41.095999999999997      33.717999999999996
   327   4     -5.8730000000000002      41.523000000000003      34.447999999999993
   328   4      1.7190000000000001      38.054000000000002      35.592999999999996
   329   1      2.8319999999999999      37.996000000000002      36.523999999999994
   330   1      4.0970000000000004      38.646999999999998      35.974999999999994
   331   6      4.9429999999999996      39.075000000000003      36.765999999999991
   332   1      3.1080000000000001      36.539000000000001      36.899999999999991
   333   1      1.8320000000000001                  35.762      37.214999999999996
   334   6     0.91000000000000003      35.752000000000002      36.367999999999995
   335   6                   1.754      35.152000000000001      38.304999999999993
   336   4      4.2640000000000002                  38.738      34.651999999999994
   337   1      5.4909999999999997                  39.305      34.096999999999994
   338   1      5.2679999999999998      40.665999999999997      33.443999999999996
   339   6      6.1609999999999996      41.161999999999999      32.746999999999993
   340   1      6.1360000000000001      38.335999999999999      33.097999999999992
   341   1      7.3710000000000004                  37.558      33.648999999999994
   342   1      8.4789999999999992      38.485999999999997      34.178999999999995
   343   4      9.8369999999999997      37.982999999999997      33.926999999999992
   344   1                  10.945                   38.43      34.521999999999991
   345   4      10.896000000000001      39.414000000000001       35.41599999999999
   346   4      12.119999999999999      37.904000000000003      34.199999999999996
   347   4      4.1079999999999997      41.284999999999997       33.66299999999999
   348   1      3.8580000000000001      42.627000000000002      33.152999999999992
   349   1      4.8390000000000004      43.619999999999997      33.756999999999991
   350   6      5.0579999999999998      43.636000000000003      34.969999999999992
   351   1      2.4199999999999999      43.037999999999997      33.460999999999991
   352   8      1.2030000000000001                  42.134      32.467999999999996
   353   4      5.4379999999999997                  44.445      32.901999999999994