(written by ASE)

4211 atoms
5 atom types

0.0                 177.946  xlo xhi
0.0                 177.946  ylo yhi
0.0                 177.946  zlo zhi

Atoms # atomic

     1   2      47.335000000000001      84.433000000000007     -53.892000000000003
     2   1      48.462000000000003      83.968000000000004     -53.018999999999998
     3   1      47.990000000000002      82.986000000000004     -51.854999999999997
     4   3      47.343000000000004      83.462999999999994     -50.871000000000002
     5   1      49.295000000000002      85.218999999999994     -52.481000000000002
     6   2      48.287999999999997      81.647000000000006     -51.991999999999997
     7   1      48.106999999999999      80.588999999999999                 -50.927
     8   1      49.351999999999997      79.730999999999995                 -50.622
     9   3      50.161999999999999      79.477000000000004     -51.518000000000001
    10   1      46.820999999999998      79.748000000000005                 -51.116
    11   1      47.057000000000002      78.382999999999996     -51.732999999999997
    12   3      47.850999999999999      77.569000000000003     -51.259999999999998
    13   2                  46.302      78.106999999999999     -52.777000000000001
    14   2      49.496000000000002      79.280000000000001     -49.359000000000002
    15   1      50.783999999999999      78.900000000000006     -48.856000000000002
    16   1      51.348999999999997      77.647999999999996     -49.439999999999998
    17   3      52.543999999999997      77.605999999999995     -49.670000000000002
    18   1      50.533000000000001      78.724999999999994                 -47.372
    19   1      49.402000000000001      79.558000000000007     -47.097999999999999
    20   1      48.529000000000003      79.326999999999998     -48.262999999999998
    21   2      50.518000000000001      76.643000000000001                 -49.695
    22   1      51.002000000000002                  75.384     -50.262999999999998
    23   1      51.659999999999997      75.647000000000006     -51.604999999999997
    24   3      52.808999999999997      75.225999999999999     -51.856000000000002
    25   1      49.859000000000002      74.427000000000007     -50.494999999999997
    26   1      50.158000000000001      73.004999999999995     -50.107999999999997
    27   1                  49.625      72.022000000000006     -51.097999999999999
    28   2      48.418999999999997      72.466999999999999     -51.805999999999997
    29   1      47.198999999999998                  72.006     -51.536000000000001
    30   2      47.046999999999997      71.096999999999994                 -50.564
    31   2      46.134999999999998      72.432000000000002     -52.228000000000002
    32   2      50.933999999999997      76.364999999999995     -52.463999999999999
    33   1      51.402999999999999      76.581000000000003                 -53.823
    34   1      52.457999999999998      77.641000000000005     -53.854999999999997
    35   3      53.348999999999997      77.603999999999999                 -54.692
    36   1      50.277000000000001      76.962000000000003     -54.756999999999998
    37   1      49.159999999999997      75.944999999999993                 -54.872
    38   1                  48.113      76.405000000000001     -55.881999999999998
    39   3      46.880000000000003      76.280000000000001     -55.604999999999997
    40   3      48.542000000000002      76.918000000000006     -56.959000000000003
    41   2      52.360999999999997      78.585999999999999     -52.939999999999998
    42   1                  53.378      79.605999999999995     -52.848999999999997
    43   1      54.659999999999997      79.001999999999995     -52.359999999999999
    44   3      55.744999999999997      79.359999999999999     -52.811999999999998
    45   1                  52.948      80.701999999999998     -51.898000000000003
    46   1      52.066000000000003      81.754000000000005     -52.564999999999998
    47   3                  51.738      81.695999999999998     -53.759999999999998
    48   2                  51.698      82.739000000000004     -51.783999999999999
    49   2      54.542999999999999      78.055000000000007     -51.448999999999998
    50   1      55.728999999999999      77.382000000000005     -50.988999999999997
    51   1                  56.442      76.706999999999994     -52.125999999999998
    52   3      57.655000000000001      76.781000000000006                 -52.238
    53   1      55.417000000000002      76.346000000000004     -49.921999999999997
    54   1      56.603999999999999      75.594999999999999     -49.487000000000002
    55   1      57.389000000000003      76.058999999999997     -48.456000000000003
    56   1      56.976999999999997      74.426000000000002                 -50.131
    57   1      58.546999999999997      75.352999999999994     -48.052999999999997
    58   1      58.128999999999998      73.721999999999994                 -49.738
    59   1      58.904000000000003      74.191000000000003     -48.704000000000001
    60   2      55.662999999999997      76.031000000000006     -52.954999999999998
    61   1                   56.18      75.078999999999994                  -53.93
    62   1      56.841999999999999      75.778000000000006     -55.045999999999999
    63   3      57.811999999999998      75.293999999999997     -55.582999999999998
    64   1      55.039999999999999      74.257000000000005     -54.494999999999997
    65   1      54.539999999999999      73.188000000000002     -53.545000000000002
    66   1      53.509999999999998      72.459999999999994     -54.274999999999999
    67   1                  55.634      72.227999999999994     -53.192999999999998
    68   2      56.274999999999999      76.917000000000002     -55.401000000000003
    69   1      56.875999999999998      77.829999999999998     -56.323999999999998
    70   1      58.170000000000002      78.343000000000004                 -55.756
    71   3      59.194000000000003      78.257999999999996     -56.417000000000002
    72   1      55.960999999999999                  79.012                 -56.567
    73   1      54.893999999999998      78.786000000000001                 -57.625
    74   1      53.924999999999997                  79.991     -57.646000000000001
    75   1      54.658000000000001      81.346000000000004     -57.475000000000001
    76   2      53.863999999999997      82.266000000000005     -56.597999999999999
    77   2      58.140999999999998      78.879000000000005     -54.539999999999999
    78   1      59.375999999999998      79.382999999999996     -53.969999999999999
    79   1      60.420999999999999      78.302999999999997     -54.018999999999998
    80   3      61.539000000000001      78.546999999999997     -54.417000000000002
    81   1      59.210999999999999      79.864000000000004     -52.533000000000001
    82   5      60.835999999999999      80.212000000000003                 -51.616
    83   2      60.058999999999997      77.096000000000004     -53.627000000000002
    84   1      61.006999999999998      76.001000000000005                 -53.619
    85   1      61.607999999999997                  75.738     -54.984999999999999
    86   3                  62.805      75.727000000000004                 -55.128
    87   1      60.323999999999998      74.771000000000001     -53.106000000000002
    88   1      61.253999999999998      73.668999999999997     -52.784999999999997
    89   1                  61.942      73.656000000000006     -51.582999999999998
    90   1      61.441000000000003      72.623000000000005     -53.677999999999997
    91   1      62.841999999999999      72.605000000000004     -51.274000000000001
    92   1                  62.308      71.575000000000003                 -53.384
    93   1      63.015000000000001      71.569999999999993     -52.173999999999999
    94   2                  60.762      75.566999999999993     -55.990000000000002
    95   1      61.191000000000003      75.432000000000002     -57.390000000000001
    96   1      62.119999999999997      76.513000000000005     -57.856999999999999
    97   3      62.965000000000003      76.284999999999997     -58.703000000000003
    98   1      59.981999999999999      75.531999999999996     -58.295000000000002
    99   3      59.378999999999998      74.286000000000001     -58.475000000000001
   100   2      61.887999999999998      77.712000000000003     -57.348999999999997
   101   1      62.645000000000003      78.879999999999995     -57.707000000000001
   102   1      64.066000000000003      78.665999999999997     -57.216000000000001
   103   3      65.016999999999996      78.781999999999996     -57.990000000000002
   104   1      62.018999999999998      80.099000000000004     -57.039999999999999
   105   1      62.189999999999998      81.442999999999998     -57.768000000000001
   106   1      61.975000000000001      82.673000000000002     -56.798999999999999
   107   1      60.487000000000002      83.186000000000007     -56.715000000000003
   108   2      60.311999999999998      84.432000000000002     -55.857999999999997
   109   2      64.198999999999998      78.304000000000002                 -55.939
   110   1      65.507999999999996      78.111999999999995                 -55.302
   111   1      66.177999999999997                  76.875                 -55.872
   112   3      67.396000000000001      76.745999999999995     -55.850999999999999
   113   1      65.379000000000005      77.965999999999994     -53.776000000000003
   114   1      65.322999999999993      79.263999999999996     -53.021000000000001
   115   2      64.144999999999996      79.950999999999993     -52.795000000000002
   116   1      66.290000000000006      79.974000000000004     -52.392000000000003
   117   1      64.390000000000001      81.037999999999997     -52.082000000000001
   118   2      65.685000000000002      81.073999999999998                 -51.823
   119   2                  65.366      75.960999999999999                 -56.378
   120   1      65.855000000000004      74.676000000000002     -56.810000000000002
   121   1                  65.003      74.081000000000003     -57.941000000000003
   122   3      63.921999999999997                  73.497     -57.704000000000001
   123   1      66.060000000000002                  73.744     -55.597999999999999
   124   1      67.533000000000001      73.819999999999993     -55.159999999999997
   125   1      65.635000000000005      72.319000000000003     -55.899999999999999
   126   1      68.620999999999995      73.760000000000005     -56.365000000000002
   127   2      65.459999999999994      74.287000000000006     -59.192999999999998
   128   1                  64.869      73.599000000000004     -60.353000000000002
   129   1      65.465999999999994      72.171000000000006     -60.518000000000001
   130   3      66.611000000000004      71.927000000000007     -60.061999999999998
   131   1      65.233000000000004      74.516000000000005     -61.536999999999999
   132   1      66.079999999999998      75.673000000000002     -60.939999999999998
   133   1      66.516000000000005      75.242000000000004     -59.585000000000001
   134   2      64.692999999999998                  71.247                 -61.128
   135   1      65.063999999999993      69.799999999999997     -61.359000000000002
   136   1      66.552000000000007      69.358999999999995     -61.225000000000001
   137   3      67.296000000000006                  69.241     -62.213999999999999
   138   1      64.480000000000004      69.308000000000007     -62.700000000000003
   139   1      64.347999999999999      70.436000000000007     -63.744999999999997
   140   3      63.274999999999999      70.629000000000005     -64.347999999999999
   141   2      65.436000000000007      71.188000000000002     -63.953000000000003
   142   2      65.399000000000001                  63.448     -57.826000000000001
   143   1      64.096000000000004                  62.802     -57.704999999999998
   144   1      62.993000000000002      63.750999999999998     -57.201999999999998
   145   3      63.110999999999997      64.995999999999995     -57.283999999999999
   146   1      64.349999999999994      61.758000000000003     -56.607999999999997
   147   1      65.316000000000003      62.481000000000002     -55.634999999999998
   148   1      66.126000000000005      63.454999999999998     -56.533000000000001
   149   2      61.932000000000002      63.133000000000003     -56.670000000000002
   150   1      60.881999999999998      63.847000000000001     -56.003999999999998
   151   1      61.485999999999997      64.353999999999999     -54.725999999999999
   152   3      62.289000000000001      63.667999999999999     -54.072000000000003
   153   1      59.719000000000001      62.926000000000002     -55.718000000000004
   154   1      58.655000000000001      63.029000000000003                 -56.747
   155   1      57.322000000000003      62.566000000000003     -56.188000000000002
   156   1      56.279000000000003      63.567999999999998     -56.539999999999999
   157   2      56.753999999999998                  64.884     -56.054000000000002
   158   2      61.119999999999997      65.581000000000003     -54.412999999999997
   159   1                  61.555      66.209999999999994     -53.210000000000001
   160   1      60.369999999999997      66.775999999999996     -52.488999999999997
   161   3      60.487000000000002      67.087000000000003     -51.314999999999998
   162   1      62.493000000000002      67.355999999999995     -53.536000000000001
   163   1      63.758000000000003      67.036000000000001                 -54.314
   164   1      64.510999999999996      68.311999999999998     -54.659999999999997
   165   1      64.650999999999996      66.102999999999994     -53.490000000000002
   166   2                  59.244      66.965999999999994     -53.176000000000002
   167   1      58.093000000000004      67.534999999999997     -52.484000000000002
   168   1      56.869999999999997      66.685000000000002     -52.622999999999998
   169   3                  56.555      66.207999999999998     -53.704000000000001
   170   1      57.734999999999999      68.984999999999999     -52.920000000000002
   171   1      58.853999999999999      69.942999999999998     -52.555999999999997
   172   1      57.414999999999999      69.052999999999997     -54.412999999999997
   173   2      56.164000000000001      66.498999999999995     -51.529000000000003
   174   1      54.935000000000002      65.778999999999996     -51.616999999999997
   175   1      53.795000000000002      66.594999999999999                 -51.061
   176   3      53.957000000000001      67.322000000000003     -50.061999999999998
   177   1      55.067999999999998      64.478999999999999     -50.883000000000003
   178   1      56.055999999999997                  63.555     -51.523000000000003
   179   1      57.396999999999998      63.569000000000003     -51.161999999999999
   180   1      55.649999999999999      62.673999999999999     -52.502000000000002
   181   1                  58.302      62.725000000000001                 -51.756
   182   1      56.531999999999996      61.838000000000001     -53.104999999999997
   183   1      57.856999999999999      61.853999999999999     -52.728000000000002
   184   3      58.719999999999999      60.968000000000004     -53.353000000000002
   185   2      52.655999999999999      66.522000000000006     -51.731999999999999
   186   1                  51.439      67.034000000000006     -51.179000000000002
   187   1      50.414999999999999      65.929000000000002     -51.201999999999998
   188   3      50.581000000000003      64.933000000000007     -51.893000000000001
   189   1      50.902999999999999      68.200999999999993     -51.963999999999999
   190   3      50.231000000000002      67.727999999999994     -53.146999999999998
   191   1      52.024000000000001      69.114999999999995     -52.344999999999999
   192   2      49.359000000000002                  66.125     -50.424999999999997
   193   1      48.195999999999998      65.271000000000001                 -50.427
   194   1      47.813000000000002      64.709000000000003     -51.804000000000002
   195   3                  47.253      63.622999999999998                 -51.887
   196   1      47.033999999999999      66.073999999999998     -49.896000000000001
   197   1                  46.009      65.248999999999995     -49.143999999999998
   198   1      46.101999999999997      65.450000000000003                 -47.619
   199   3                  45.567      64.626999999999995     -46.853000000000002
   200   2      46.768000000000001      66.554000000000002     -47.173999999999999
   201   2      48.095999999999997      65.432000000000002                 -52.878
   202   1      47.762999999999998      64.927999999999997     -54.222999999999999
   203   1                  48.619      63.784999999999997     -54.710000000000001
   204   3      48.216999999999999      63.048999999999999     -55.634999999999998
   205   1      47.845999999999997      66.043000000000006     -55.226999999999997
   206   1      47.100999999999999      67.239000000000004     -54.777999999999999
   207   2      45.726999999999997      67.316000000000003     -54.847000000000001
   208   1      47.515999999999998      68.359999999999999     -54.149000000000001
   209   1      45.332999999999998      68.469999999999999     -54.345999999999997
   210   2      46.399999999999999                  69.122     -53.912999999999997
   211   2      49.802999999999997      63.658999999999999     -54.110999999999997
   212   1      50.741999999999997                  62.692     -54.561999999999998
   213   1      50.310000000000002                  61.369     -54.040999999999997
   214   3      49.960999999999999                  61.247     -52.877000000000002
   215   1                  52.128      63.033999999999999     -54.079999999999998
   216   1                  52.753      64.167000000000002     -54.874000000000002
   217   3      52.773000000000003                  64.137     -56.136000000000003
   218   3      53.264000000000003      65.102999999999994     -54.225999999999999
   219   2                  50.311      60.360999999999997     -54.899999999999999
   220   1      49.981999999999999      59.033000000000001     -54.423000000000002
   221   1      50.771000000000001      58.582000000000001     -53.183999999999997
   222   3      50.246000000000002                  57.869     -52.360999999999997
   223   1      50.067999999999998                  58.003     -55.534999999999997
   224   1      49.139000000000003      56.838999999999999     -55.274999999999999
   225   1                  47.756      57.273000000000003                 -54.753
   226   3      47.082999999999998      58.152999999999999                 -55.317
   227   2      47.337000000000003      56.658999999999999     -53.670000000000002
   228   2                  52.006      59.024999999999999     -53.020000000000003
   229   1      52.807000000000002      58.470999999999997                 -51.945
   230   1      52.697000000000003      59.195999999999998     -50.642000000000003
   231   3                  53.198      58.713000000000001     -49.609999999999999
   232   1      54.274000000000001      58.384999999999998     -52.335999999999999
   233   1      54.576000000000001      57.228999999999999     -53.262999999999998
   234   1      56.058999999999997      57.036000000000001     -53.314999999999998
   235   1      53.853000000000002      55.951000000000001     -52.798999999999999
   236   2      52.076999999999998                  60.369                  -50.68
   237   1      51.960000000000001      61.176000000000002     -49.475999999999999
   238   1      51.713000000000001      60.338999999999999     -48.225000000000001
   239   3      52.612000000000002      60.185000000000002     -47.405999999999999
   240   1      50.863999999999997      62.207000000000001     -49.652000000000001
   241   1      50.689999999999998      63.182000000000002     -48.508000000000003
   242   1                  51.491      64.322000000000003     -48.390000000000001
   243   1      49.671999999999997                  62.991     -47.563000000000002
   244   1      51.274000000000001      65.227999999999994                 -47.366
   245   1      49.454000000000001      63.890999999999998     -46.527000000000001
   246   1      50.247999999999998      64.983999999999995     -46.438000000000002
   247   3      49.991999999999997      65.843999999999994     -45.429000000000002
   248   2      50.517000000000003      59.755000000000003     -48.137999999999998
   249   1      50.060000000000002      59.058999999999997     -46.935000000000002
   250   1                  51.058      58.060000000000002     -46.404000000000003
   251   3      51.418999999999997      58.079999999999998     -45.235999999999997
   252   1      48.701000000000001                  58.378     -47.143999999999998
   253   1      47.490000000000002      59.237000000000002     -46.795000000000002
   254   5      47.616999999999997      59.963000000000001     -45.134999999999998
   255   1      46.252000000000002      61.161999999999999     -45.064999999999998
   256   2      51.533000000000001      57.198999999999998     -47.273000000000003
   257   1      52.439999999999998      56.173000000000002     -46.810000000000002
   258   1                  53.817      56.719000000000001     -46.534999999999997
   259   3      54.536999999999999      56.140000000000001                 -45.747
   260   1      52.481000000000002      54.951000000000001     -47.749000000000002
   261   3      52.469000000000001      55.368000000000002     -49.091999999999999
   262   2      54.183999999999997      57.844999999999999     -47.127000000000002
   263   1      55.384999999999998      58.494999999999997     -46.616999999999997
   264   1      55.121000000000002      59.043999999999997     -45.222999999999999
   265   3                  55.805      58.670000000000002     -44.298000000000002
   266   1      55.908999999999999      59.576000000000001     -47.503999999999998
   267   1      56.191000000000003                  59.009                 -48.869
   268   1      57.200000000000003      60.090000000000003     -46.936999999999998
   269   1                  56.814      59.984000000000002     -49.801000000000002
   270   2      54.109000000000002      59.893999999999998     -45.088999999999999
   271   1                  53.741      60.490000000000002                 -43.823
   272   1      53.774999999999999      59.447000000000003                 -42.759
   273   3      54.459000000000003      59.597000000000001     -41.752000000000002
   274   1      52.298999999999999      60.975999999999999     -43.853999999999999
   275   1      51.905000000000001      62.183999999999997     -42.975000000000001
   276   1      50.533999999999999      62.058999999999997     -42.402999999999999
   277   1                  52.869      62.536999999999999     -41.853000000000002
   278   2      53.002000000000002      58.399000000000001     -43.005000000000003
   279   1      52.799999999999997      57.305999999999997     -42.109999999999999
   280   1      54.030999999999999      56.548999999999999     -41.837000000000003
   281   3      54.161000000000001                  56.052     -40.734000000000002
   282   1      51.908000000000001      56.304000000000002     -42.793999999999997
   283   1      50.668999999999997                  55.997     -42.024000000000001
   284   3      50.317999999999998      56.707000000000001     -41.084000000000003
   285   2      49.966000000000001      54.914000000000001     -42.444000000000003
   286   2      54.896999999999998      56.393999999999998     -42.853999999999999
   287   1      55.950000000000003      55.325000000000003                 -42.869
   288   1      56.627000000000002      55.326000000000001     -41.549999999999997
   289   3      56.585999999999999      54.338999999999999     -40.856999999999999
   290   1      57.023000000000003      55.478999999999999     -43.981000000000002
   291   3      57.838999999999999      56.665999999999997     -43.851999999999997
   292   2      57.188000000000002      56.469999999999999     -41.179000000000002
   293   1      57.984999999999999      56.536999999999999     -39.970999999999997
   294   1      57.286999999999999      57.176000000000002                 -38.753
   295   3      57.969999999999999      57.616999999999997     -37.838000000000001
   296   1      59.487000000000002      57.072000000000003     -40.226999999999997
   297   3      59.515000000000001      58.378999999999998     -40.829000000000001
   298   1      60.277000000000001      56.104999999999997     -41.103999999999999
   299   2      55.948999999999998      57.219000000000001     -38.701000000000001
   300   1      55.295000000000002                   57.68     -37.465000000000003
   301   1                  55.311                  56.491     -36.487000000000002
   302   3      54.531999999999996      55.531999999999996     -36.651000000000003
   303   1                  53.875      58.390000000000001     -37.630000000000003
   304   1      52.746000000000002      57.533999999999999     -37.151000000000003
   305   1      53.533999999999999      58.886000000000003                 -38.997
   306   1      52.405999999999999      57.860999999999997     -35.743000000000002
   307   2      56.255000000000003      56.511000000000003     -35.530000000000001
   308   1      56.518999999999998      55.334000000000003     -34.649999999999999
   309   1      55.469999999999999                  55.009     -33.575000000000003
   310   3      55.307000000000002      53.843000000000004                 -33.189
   311   1      57.874000000000002      55.427999999999997     -33.950000000000003
   312   1                  59.131                   55.25                 -34.811
   313   1                  58.991      54.241999999999997                  -35.93
   314   3      58.988999999999997      53.030000000000001     -35.722000000000001
   315   2      58.895000000000003                  54.747                 -37.134
   316   2      54.783999999999999      56.033000000000001     -33.079000000000001
   317   1      53.796999999999997      55.835000000000001     -32.040999999999997
   318   1      52.353999999999999      55.768000000000001     -32.542000000000002
   319   3      51.692999999999998      56.798999999999999     -32.631999999999998
   320   1      53.933999999999997      56.951000000000001                 -30.997
   321   1      53.058999999999997      56.713999999999999                  -29.77
   322   3      52.036000000000001      56.015999999999998     -29.850999999999999
   323   2      53.472999999999999      57.262999999999998     -28.620000000000001
   324   2      51.838000000000001      54.587000000000003     -32.832999999999998
   325   1      50.456000000000003      54.505000000000003     -33.378999999999998
   326   1      49.368000000000002                  55.442     -32.726999999999997
   327   3      48.405999999999999      55.850999999999999                 -33.384
   328   1      49.975000000000001      53.045999999999999     -33.445999999999998
   329   1      50.966000000000001      52.037999999999997     -34.040999999999997
   330   1      50.533000000000001      50.587000000000003     -33.860999999999997
   331   1      51.167999999999999      52.338999999999999     -35.496000000000002
   332   2      49.521999999999998      55.781999999999996     -31.452999999999999
   333   1      48.685000000000002      56.773000000000003                 -30.782
   334   1      48.377000000000002      58.031999999999996     -31.629000000000001
   335   3      47.298999999999999      58.585999999999999                 -31.526
   336   1      49.390000000000001      57.194000000000003                 -29.497
   337   1      48.521999999999998      57.652000000000001                 -28.416
   338   1      49.039999999999999      58.915999999999997     -27.789000000000001
   339   2      50.140000000000001      58.700000000000003                 -26.843
   340   1      50.454000000000001      59.545999999999999     -25.850000000000001
   341   2      49.740000000000002      60.656999999999996                  -25.66
   342   2      51.476999999999997      59.284999999999997     -25.033000000000001
   343   2      49.319000000000003      58.481999999999999     -32.456000000000003
   344   1      49.143000000000001                   59.68     -33.292000000000002
   345   1                  48.802      59.383000000000003     -34.759999999999998
   346   3      49.104999999999997      60.161999999999999     -35.665999999999997
   347   1      50.390999999999998      60.558999999999997     -33.207999999999998
   348   1      50.786999999999999                  60.881                 -31.817
   349   1      51.814999999999998      60.194000000000003     -31.207999999999998
   350   1      50.091000000000001                  61.814     -31.094000000000001
   351   1      52.188000000000002      60.462000000000003     -29.914000000000001
   352   1      50.451000000000001      62.091000000000001     -29.786999999999999
   353   1      51.508000000000003      61.408999999999999     -29.190999999999999
   354   2      48.162999999999997      58.246000000000002                 -34.988
   355   1                  47.637      57.899000000000001     -36.296999999999997
   356   1                  46.134      57.851999999999997     -36.130000000000003
   357   3      45.569000000000003      56.825000000000003     -35.698999999999998
   358   1      48.232999999999997      56.536999999999999     -36.786999999999999
   359   1      49.392000000000003      56.793999999999997     -37.755000000000003