(written by ASE)

6 atoms
2 atom types

0.0                      10  xlo xhi
0.0                      10  ylo yhi
0.0                      10  zlo zhi

Atoms # atomic

     1   1      5.3780000000000001      5.9189999999999996      6.0279999999999996
     2   1                   3.931      5.7939999999999996      5.7709999999999999
     3   1                   3.661      4.5810000000000004                   4.907
     4   1      4.3310000000000004      4.8280000000000003      3.5249999999999999
     5   1      5.8159999999999998      5.0519999999999996      3.7610000000000001
     6   2      6.0069999999999997      6.0999999999999996      4.7270000000000003
